<?xml version="1.0" encoding="UTF-8"?>

<!-- generated on 2025-03-23 20:37:21 by Eclipse SUMO sumo Version 1.21.0
-->

<configuration xmlns:xsi="http://www.w3.org/2001/XMLSchema-instance" xsi:noNamespaceSchemaLocation="http://sumo.dlr.de/xsd/sumoConfiguration.xsd">

    <input>
        <net-file value="osm.net.xml.gz"/>
        <route-files value="test/00h-routes.rou.xml,
                            test/01h-routes.rou.xml,
                            test/02h-routes.rou.xml,
                            test/03h-routes.rou.xml,
                            test/04h-routes.rou.xml,
                            test/05h-routes.rou.xml,
                            test/06h-routes.rou.xml,
                            test/07h-routes.rou.xml,
                            test/08h-routes.rou.xml,
                            test/09h-routes.rou.xml"/>
        <additional-files value="osm.poly.xml.gz,vtypes.xml"/>
    </input>

    <time>
        <begin value="0"/>
        <end value="36000"/>
    </time>

    <processing>
        <ignore-route-errors value="true"/>
        <tls.actuated.jam-threshold value="30"/>
    </processing>

    <routing>
        <device.rerouting.adaptation-steps value="18"/>
        <device.rerouting.adaptation-interval value="10"/>
    </routing>

    <report>
        <verbose value="true"/>
        <duration-log.statistics value="true"/>
        <no-step-log value="true"/>
    </report>

    <gui_only>
        <gui-settings-file value="osm.view.xml"/>
    </gui_only>

    <output>
        <netstate-dump value="athens-dump-10h-test.xml"/>
        <fcd-output value="athens-fcd-10h-test.xml"/>
        <fcd-output.attributes value="id,x,y,type,speed,acceleration,odometer"/>
        <emission-output value="athens-emission-10h-test.xml"/>
        <emission-output.attributes value="id,eclass,fuel,type,waiting"/>
        <emission-output.precision value="2"/>
    </output>

</configuration>
