<?xml version="1.0" encoding="UTF-8"?>

<!-- generated on 2025-04-12 16:09:46 by Eclipse SUMO sumo Version 1.21.0
-->

<sumoConfiguration xmlns:xsi="http://www.w3.org/2001/XMLSchema-instance" xsi:noNamespaceSchemaLocation="http://sumo.dlr.de/xsd/sumoConfiguration.xsd">

    <input>
        <net-file value="osm.net.xml.gz"/>
        <route-files value="test-routes.rou.xml,
                            fixed-routes.rou.xml"/>
        <additional-files value="osm.poly.xml.gz,
                                 vtypes.xml"/>
    </input>

    <processing>
        <ignore-route-errors value="true"/>
        <tls.actuated.jam-threshold value="30"/>
    </processing>

    <routing>
        <device.rerouting.adaptation-steps value="18"/>
        <device.rerouting.adaptation-interval value="10"/>
    </routing>

    <report>
        <verbose value="true"/>
        <duration-log.statistics value="true"/>
        <no-step-log value="true"/>
    </report>

    <gui_only>
        <gui-settings-file value="osm.view.xml"/>
    </gui_only>

    <output>
        <netstate-dump value="dump-test-athens-10h.xml"/>
        <fcd-output value="fcd-test-athens-10h.xml"/>
        <fcd-output.attributes value="id, x, y, type, speed, acceleration, odometer"/>
        <emission-output value="emission-test-athens-10h.xml"/>
        <emission-output.attributes value="id, eclass, fuel, type, waiting"/>
        <emission-output.precision value="2"/>
    </output>

</sumoConfiguration>
