<?xml version="1.0" encoding="UTF-8"?>

<!-- generated on 2025-03-23 20:37:17 by Eclipse SUMO sumo Version 1.21.0
<sumoConfiguration xmlns:xsi="http://www.w3.org/2001/XMLSchema-instance" xsi:noNamespaceSchemaLocation="http://sumo.dlr.de/xsd/sumoConfiguration.xsd">

    <input>
        <net-file value="C:\Users\george\Desktop\diploma-thesis\2025-03-23-20-36-55\osm.net.xml.gz"/>
        <route-files value="C:\Users\george\Desktop\diploma-thesis\2025-03-23-20-36-55\trips.trips.xml"/>
        <additional-files value="C:\Users\george\Desktop\diploma-thesis\2025-03-23-20-36-55\osm_stops.add.xml"/>
    </input>

    <output>
        <vehroute-output value="C:\Users\george\Desktop\diploma-thesis\2025-03-23-20-36-55\vehroutes.xml"/>
        <stop-output value="C:\Users\george\Desktop\diploma-thesis\2025-03-23-20-36-55\stopinfos.xml"/>
    </output>

    <time>
        <begin value="0.0"/>
    </time>

    <processing>
        <ignore-route-errors value="true"/>
    </processing>

    <routing>
        <device.rerouting.adaptation-interval value="0"/>
    </routing>

    <report>
        <aggregate-warnings value="5"/>
        <error-log value="C:\Users\george\Desktop\diploma-thesis\2025-03-23-20-36-55\trips.trips.xml.errorlog"/>
        <no-step-log value="true"/>
    </report>

</sumoConfiguration>
-->

<routes xmlns:xsi="http://www.w3.org/2001/XMLSchema-instance" xsi:noNamespaceSchemaLocation="http://sumo.dlr.de/xsd/routes_file.xsd">
    <vehicle id="0_trolleybus_10:0" type="pt_trolleybus" depart="3.00" departLane="1" arrival="130.00">
        <route edges="167920332#0 167920332#1 5214469#0 922523361#0 169130609#0 169130600#0 169130600#0-AddedOffRampEdge 881725976#0"/>
        <stop busStop="2560629818" duration="30.00"/>
    </vehicle>

    <vehicle id="8_bus_214:0" type="pt_bus" depart="47.00" departLane="0" arrival="142.00">
        <route edges="295056177#0 881725975#0 -972690316#2 -295056177#1"/>
        <stop busStop="6644789228" duration="30.00"/>
    </vehicle>

    <vehicle id="20_bus_051:1" type="pt_bus" depart="126.00" departLane="0" arrival="183.00">
        <route edges="741087752 286070634#0"/>
        <stop busStop="3459098593" duration="30.00"/>
    </vehicle>

    <vehicle id="16_bus_022:0" type="pt_bus" depart="98.00" departLane="0" arrival="200.00">
        <route edges="327261701#0 168914464#0 23183273#0 380901379#0 751068056 309269227"/>
        <stop busStop="10572209196" duration="30.00"/>
    </vehicle>

    <vehicle id="12_bus_500:2" type="pt_bus" depart="60.00" departLane="0" arrival="207.00">
        <route edges="260124785 702087350 755022871#0 189099792#0 -82682785#1 -82682785#0 384593009 384593008#0 838111477 -82682796#1 10741758#0 10741758#1 10741722#0 10741722#2 10741722#3 741087756#0 741087756#1 -741087755"/>
        <stop busStop="2515049716" duration="30.00"/>
    </vehicle>

    <vehicle id="19_bus_051:0" type="pt_bus" depart="125.00" departLane="0" arrival="223.00">
        <route edges="1098831917 741033482 82682796#0 82682796#1 384593007 284503674#0 972965170#0 972965169 10976960#3 10976960#8 741087752"/>
        <stop busStop="2786681834" duration="30.00"/>
    </vehicle>

    <vehicle id="2_bus_732:0" type="pt_bus" depart="15.00" departLane="1" arrival="228.00">
        <route edges="10741754#0 222899032#0 222899032#1 284503674#0 972965170#0 32245113#0 741733384#0 260824573#0 260824573#3 189099792#0 10741751#0"/>
        <stop busStop="11877289039" duration="30.00"/>
    </vehicle>

    <vehicle id="17_bus_Β9:0" type="pt_bus" depart="102.00" departLane="1" arrival="228.00">
        <route edges="32245113#0 741733384#0 260824573#0 260824573#3 189099792#0 10741751#0"/>
        <stop busStop="1997456424" duration="30.00"/>
    </vehicle>

    <vehicle id="42_bus_046:0" type="pt_bus" depart="227.00" departLane="0" arrival="272.00">
        <route edges="741721487#0"/>
        <stop busStop="2786689547" duration="30.00"/>
    </vehicle>

    <vehicle id="5_bus_Ε14:0" type="pt_bus" depart="27.00" departLane="0" arrival="274.00">
        <route edges="167920332#0 167920332#1 221211079 52493502#0 170644475#0 52493497#0 909651168 789786774 909651173#0 820421378#0 909651169 909651170#0 295056184#0 259803253 830255108#0 170993800#0 5728492#0 87082472 560974709 87082462#0-AddedOnRampEdge 87082462#0 789796814 23182767#0 23182987#0"/>
        <stop busStop="1792445582" duration="30.00"/>
    </vehicle>

    <vehicle id="14_bus_790:0" type="pt_bus" depart="65.00" departLane="0" arrival="280.00">
        <route edges="741087755 589664316#0 670872012#0 280005152#0 725187180 298298663#0 23182962 189063912#0 207971475#0 207971475#1 284241336#0 284241336#5 52493742 52493741#0 704293239#0 299506410#0 207979572#0 23182767#0 23182987#0"/>
        <stop busStop="3459200593" duration="30.00"/>
    </vehicle>

    <vehicle id="36_trolleybus_21:0" type="pt_trolleybus" depart="188.00" departLane="0" arrival="297.00">
        <route edges="741087755 589664316#0 670872012#0 -670872012#2 -589664316#3 -741087755"/>
        <stop busStop="3459098893" duration="30.00"/>
    </vehicle>

    <vehicle id="43_bus_049:0" type="pt_bus" depart="227.00" departLane="0" arrival="306.00">
        <route edges="741087755 589664316#0 670872012#0 280005152#0 725187180 977757276"/>
        <stop busStop="3940080735" duration="30.00"/>
    </vehicle>

    <vehicle id="34_trolleybus_10:1" type="pt_trolleybus" depart="166.00" departLane="0" arrival="307.00">
        <route edges="295056178#0 881725977#0 169130603#0 169130590"/>
        <stop busStop="2560629699" duration="30.00"/>
    </vehicle>

    <vehicle id="26_bus_220:0" type="pt_bus" depart="137.00" departLane="0" arrival="312.00">
        <route edges="661575900 169130571 922515458#0 170644476#0 659991805#0 169130582#0 922515461#0"/>
        <stop busStop="1818038857" duration="30.00"/>
    </vehicle>

    <vehicle id="21_bus_235:0" type="pt_bus" depart="131.00" departLane="0" arrival="314.00">
        <route edges="167920332#0 167920332#1 221211079 52493502#0 170644475#0 169130585 734708564#0 659991805#0 169130582#0 922515461#0"/>
        <stop busStop="1792445582" duration="30.00"/>
    </vehicle>

    <vehicle id="31_trolleybus_1:0" type="pt_trolleybus" depart="160.00" departLane="0" arrival="324.00">
        <route edges="741087755 589664316#0 670872012#0 280005152#0 725187180 298298663#0 23182962 189063912#0 207971475#0 207971475#1 284241336#0 284241336#5 52493742 52493741#0 704293239#0 299506410#0 207979572#0 23182767#0 23182987#0"/>
        <stop busStop="3459098893" duration="30.00"/>
    </vehicle>

    <vehicle id="47_bus_203:0" type="pt_bus" depart="253.00" departLane="0" arrival="330.00">
        <route edges="295056177#0 881725975#0 -972690316#2 -295056177#1"/>
        <stop busStop="6644789228" duration="30.00"/>
    </vehicle>

    <vehicle id="1_bus_035:0" type="pt_bus" depart="15.00" departLane="0" arrival="337.00">
        <route edges="601294009#0 298383050#0 298383050#1 298383050#2 52080450 52080446#0 52080446#1 741721487#0 311408820#0 311408820#5 311408820#8 168737311#0 168737311#3 32295709 207971475#0 207971475#1 284241336#0 1098886968#0 10976954#0 742016387#0 286067599#0 286067599#2 286067599#6 286067599#7 286067599#8 -717328985#3 -715534866#1 -715534866#0"/>
        <stop busStop="2786688743" duration="30.00"/>
    </vehicle>

    <vehicle id="29_subway_Μ2:0" type="pt_subway" depart="157.00" departLane="0" arrival="338.00">
        <route edges="799826579 799826592"/>
        <stop busStop="7480425252" duration="30.00"/>
        <stop busStop="7480425260" duration="30.00"/>
        <stop busStop="7480425272" duration="30.00"/>
    </vehicle>

    <vehicle id="11_bus_500:1" type="pt_bus" depart="55.00" departLane="0" arrival="341.00">
        <route edges="260124785 702087350 311408820#0 311408820#5 311408820#8 168737311#0 168737311#3 32295709 207971475#0 207971475#1 284241336#0 1098886968#0 10976954#0 742016387#0 286067599#0 286067599#2 286067599#6 286067599#7 286067599#8 -717328985#3 -715534866#1 -715534866#0"/>
        <stop busStop="2515049716" duration="30.00"/>
    </vehicle>

    <vehicle id="44_bus_051:2" type="pt_bus" depart="237.00" departLane="0" arrival="343.00">
        <route edges="1098831917 741033482 82682796#0 82682796#1 384593007 284503674#0 82682799 85392263#1 10741758#1 10741722#0 10741722#2 10741722#3 286070634#0"/>
        <stop busStop="2786681834" duration="30.00"/>
    </vehicle>

    <vehicle id="18_bus_Χ14_ΣΥΝΤΑΓΜΑ_-_ΚΗΦΙΣΙΑ:0" type="pt_bus" depart="119.00" departLane="0" arrival="344.00">
        <route edges="221139568 221139568-AddedOffRampEdge 298744689 23182816 -170993800#2 -917873078 -259803253 -972690969 -909651170#1 -909651169 -820421378#1 -909651173#2 -909651172 -972690317 284174992#0 169130585 734708564#0 169130603#0 169130590"/>
        <stop busStop="-7021774778" duration="30.00"/>
    </vehicle>

    <vehicle id="37_bus_Α2:0" type="pt_bus" depart="189.00" departLane="0" arrival="347.00">
        <route edges="380901379#0 751068056 168914458#0 299510529#0 299644700#0 299644700#2 299644700#5 299644700#7 299644700#8 298828555#0 170993800#0 5728492#0 87082472 560974709"/>
        <stop busStop="7137782788" duration="30.00"/>
    </vehicle>

    <vehicle id="28_bus_500:3" type="pt_bus" depart="147.00" departLane="0" arrival="352.00">
        <route edges="741087755 589664316#0 670872012#0 280005152#0 725187180 298298663#0 23182962 32295538#0 -168737311#11 -168737311#2 -311408820#10 -311408820#7 -311408820#4 755022871#0 189099793"/>
        <stop busStop="3459098893" duration="30.00"/>
    </vehicle>

    <vehicle id="27_subway_Μ3:0" type="pt_subway" depart="139.00" departLane="0" arrival="353.00">
        <route edges="799602875 799602876 800265935"/>
        <stop busStop="7478322261" duration="30.00"/>
        <stop busStop="7478372541" duration="30.00"/>
        <stop busStop="7478372529" duration="30.00"/>
    </vehicle>

    <vehicle id="49_bus_209:0" type="pt_bus" depart="303.00" departLane="0" arrival="353.00">
        <route edges="23182767#0"/>
        <stop busStop="2182353004" duration="30.00"/>
    </vehicle>

    <vehicle id="32_trolleybus_4:0" type="pt_trolleybus" depart="160.00" departLane="0" arrival="361.00">
        <route edges="260124785 702087350 311408820#0 311408820#5 311408820#8 168737311#0 168737311#3 32295709 207971475#0 207971475#1 284241336#0 284241336#5 52493742 52493741#0 704293239#0 299506410#0 207979572#0 23182767#0 23182987#0"/>
        <stop busStop="2515049716" duration="30.00"/>
    </vehicle>

    <vehicle id="33_trolleybus_5:0" type="pt_trolleybus" depart="166.00" departLane="0" arrival="361.00">
        <route edges="260124785 702087350 311408820#0 311408820#5 311408820#8 168737311#0 168737311#3 32295709 207971475#0 207971475#1 284241336#0 284241336#5 52493742 52493741#0 704293239#0 299506410#0 207979572#0 23182767#0 23182987#0"/>
        <stop busStop="2515049716" duration="30.00"/>
    </vehicle>

    <vehicle id="30_subway_Μ3:1" type="pt_subway" depart="158.00" departLane="0" arrival="378.00">
        <route edges="799602878 799602880"/>
        <stop busStop="7478372546" duration="30.00"/>
        <stop busStop="7478372558" duration="30.00"/>
        <stop busStop="7478372569" duration="30.00"/>
    </vehicle>

    <vehicle id="10_bus_500:0" type="pt_bus" depart="54.00" departLane="0" arrival="389.00">
        <route edges="715534866#0 715534866#1 717328985#0 -286067599#11 -286067599#7 -286067599#6 -286067599#4 -286067599#1 -742016387#4 286067598#0 286067598#1 286067598#2 10976958#0 10976958#1 670872012#0 280005152#0 725187180 298298663#0 23182962 32295538#0 -168737311#11 -168737311#2 -311408820#10 -311408820#7 -311408820#4 755022871#0 189099793"/>
        <stop busStop="-2786682035" duration="30.00"/>
    </vehicle>

    <vehicle id="4_bus_026:0" type="pt_bus" depart="19.00" departLane="0" arrival="391.00">
        <route edges="715534866#0 715534866#1 717328985#0 -286067599#11 -286067599#7 -286067599#6 -286067599#4 -286067599#1 711888497#0 299654833#0 52493739#0 23183970#0 52493742 52493741#0 23183271#0 168914464#0 23183273#0 380901379#0 32015255#0 32015255#4 571469975#0 571469975#3 741245822#0 741245822#1 741245823#0 741245823#2 741245823#3 741245823#4 741245823#5 601290887#0 601290887#1 601290887#2 601290887#3 601290887#4 601290887#5 601290887#6 601290887#7 482987489#0 482987489#2 482987489#4 482987489#5 482987489#7 722762256"/>
        <stop busStop="-2786682035" duration="30.00"/>
    </vehicle>

    <vehicle id="38_bus_Ε14:1" type="pt_bus" depart="201.00" departLane="0" arrival="395.00">
        <route edges="221139568 221139568-AddedOffRampEdge 298744689 23182816 -170993800#2 -917873078 -259803253 -972690969 -909651170#1 -909651169 -820421378#1 -909651173#2 -909651172 -972690317 284174992#0 169130585 734708564#0 169130603#0 169130590"/>
        <stop busStop="-2786691403" duration="30.00"/>
    </vehicle>

    <vehicle id="54_bus_550:0" type="pt_bus" depart="334.00" departLane="0" arrival="413.00">
        <route edges="295056178#0 881725977#0 169130603#0 169130590"/>
        <stop busStop="2560629699" duration="30.00"/>
    </vehicle>

    <vehicle id="6_bus_227:0" type="pt_bus" depart="28.00" departLane="0" arrival="415.00">
        <route edges="221139568 221139568-AddedOffRampEdge 298744689 5656636#0 624053070 87082469 687831199#0 167920360#0 167920360#1 23182965#0 207979569#0 207979569#3 168914464#0 167907746#0 704293238 23183369#0 1098886968#0 10976954#0 742016387#0 286067599#0 286067599#2 286067599#6 286067599#7 286067599#8 -717328985#3 -715534866#1 -715534866#0"/>
        <stop busStop="1792445580" duration="30.00"/>
    </vehicle>

    <vehicle id="3_bus_856:0" type="pt_bus" depart="17.00" departLane="0" arrival="431.00">
        <route edges="221139568 221139568-AddedOffRampEdge 298744689 5656636#0 624053070 87082469 687831199#0 167920360#0 167920360#1 23182965#0 207979566#0 23182796#0 23182796#3 734707701#9 299510181#0 299510181#3 299510181#5 299510181#8 259803255#0 259803255#2 601290889#0 601290889#4 601290889#6 601290889#8 601303883#0 299658207 49288906 10971766#0 10971766#2 10741747#0 222897513#0 222941080#6 972965169 10976960#3 10976960#8 250756985#0 -670872012#2 -589664316#3 -741087755"/>
        <stop busStop="1792445580" duration="30.00"/>
    </vehicle>

    <vehicle id="46_bus_057:0" type="pt_bus" depart="253.00" departLane="0" arrival="434.00">
        <route edges="741087755 589664316#0 670872012#0 280005152#0 725187180 298298663#0 23182962 32295538#0 189063911#0 24218743 168725549#0 23184691#0 741087752 286070634#0"/>
        <stop busStop="3459098893" duration="30.00"/>
    </vehicle>

    <vehicle id="63_bus_Α7_ΚΗΦΙΣΙΑ_(ΠΛ.ΠΛΑΤΑΝΟΥ)_-_ΣΤΟΥΡΝΑΡΗ:0" type="pt_bus" depart="381.00" departLane="0" arrival="437.00">
        <route edges="260124785 702087350 755022871#0"/>
        <stop busStop="2656090022" duration="30.00"/>
    </vehicle>

    <vehicle id="45_bus_054:0" type="pt_bus" depart="239.00" departLane="0" arrival="447.00">
        <route edges="260124785 702087350 311408820#0 311408820#5 311408820#8 168737311#0 168737311#3 189063911#0 24218743 977757273 762514801#0 762514801#3 741733384#0 260824573#0 260824573#3 189099793"/>
        <stop busStop="1997103900" duration="30.00"/>
    </vehicle>

    <vehicle id="70_bus_021:0" type="pt_bus" depart="410.00" departLane="0" arrival="454.00">
        <route edges="10971765"/>
        <stop busStop="2858090709" duration="30.00"/>
    </vehicle>

    <vehicle id="50_bus_221:0" type="pt_bus" depart="305.00" departLane="0" arrival="476.00">
        <route edges="5728512 922515462#0 922515458#0 170644476#0 659991805#0 167907745#0"/>
        <stop busStop="1818038857" duration="30.00"/>
    </vehicle>

    <vehicle id="58_bus_838:0" type="pt_bus" depart="355.00" departLane="0" arrival="486.00">
        <route edges="741087755 589664316#0 670872012#0 280005152#0 725187180 977757276 760848368#0 286067598#0 286067598#1 286067598#2 286067598#4"/>
        <stop busStop="3940829188" duration="30.00"/>
    </vehicle>

    <vehicle id="61_bus_Α2:1" type="pt_bus" depart="371.00" departLane="0" arrival="495.00">
        <route edges="221139568 221139568-AddedOffRampEdge 298744689 5656636#0 624053070 87082469 687831199#0 167920360#0 167920360#1 23182965#0 207979569#0 207979569#3 168914464#0 23183273#0"/>
        <stop busStop="1792445580" duration="30.00"/>
    </vehicle>

    <vehicle id="41_bus_035:1" type="pt_bus" depart="222.00" departLane="0" arrival="504.00">
        <route edges="715534866#0 715534866#1 717328985#0 -286067599#11 -286067599#7 -286067599#6 -286067599#4 -286067599#1 -742016387#4 286067598#0 286067598#1 286067598#2 10976958#0 10976958#1 670872012#0 280005152#0 725187180 298298663#0 23182962 32295538#0 -168737311#11 -168737311#2 -311408820#10 -311408820#7 -311408820#4 755022871#0 189099793"/>
        <stop busStop="-2786682035" duration="30.00"/>
    </vehicle>

    <vehicle id="69_bus_Β11:1" type="pt_bus" depart="406.00" departLane="0" arrival="507.00">
        <route edges="10741754#0 222897512#0 222897512#2 741033482"/>
        <stop busStop="2672706268" duration="30.00"/>
    </vehicle>

    <vehicle id="67_bus_Α11:0" type="pt_bus" depart="389.00" departLane="0" arrival="520.00">
        <route edges="741033482 82682796#0 82682796#1 384593007 54700033#0"/>
        <stop busStop="2672706268" duration="30.00"/>
    </vehicle>

    <vehicle id="68_bus_Β11:0" type="pt_bus" depart="394.00" departLane="0" arrival="522.00">
        <route edges="741033482 82682796#0 82682796#1 384593007 54700033#0"/>
        <stop busStop="2672706268" duration="30.00"/>
    </vehicle>

    <vehicle id="7_bus_204B:0" type="pt_bus" depart="38.00" departLane="0" arrival="529.00">
        <route edges="49288908#0 734707701#2 734707701#3 734707701#6 734707701#7 734707701#9 299510181#0 299510181#3 299510181#5 299510181#8 259803254#0 168914459#0 751068056 168914458#0 299510529#0 299644700#0 299644700#2 299644700#5 299644700#7 299644700#8 298828555#0 170993800#0 227444705#0 167920360#0 167920360#1 23182965#0 207979566#0 299644700#0 299644700#2 299644700#5 299644700#7 299644700#8 298828555#0 -917873078 -259803253 -972690969 -909651170#1 -909651169 -820421378#1 -909651173#2 -909651172 -972690317"/>
        <stop busStop="2652597221" duration="30.00"/>
        <stop busStop="2652597231" duration="30.00"/>
        <stop busStop="1792445580" duration="30.00"/>
    </vehicle>

    <vehicle id="15_bus_813:0" type="pt_bus" depart="93.00" departLane="0" arrival="530.00">
        <route edges="741087755 589664316#0 670872012#0 280005152#0 725187180 298298663#0 23182962 189063912#0 207971475#0 207971475#1 51249283 225906204#0 225906203 -168904430 23183371#0 23183371#4 260124787#0 601290888#0 601290888#3 601290888#5 601290888#7 601290888#9 601290886#0 601290886#2 601290886#3 601290886#4 601290886#5 601290886#6 601290886#7 601290886#8 601290886#10 601290886#11"/>
        <stop busStop="1800860234" duration="30.00"/>
        <stop busStop="1800860243" duration="30.00"/>
        <stop busStop="1800860231" duration="30.00"/>
        <stop busStop="1800860238" duration="30.00"/>
        <stop busStop="1800860250" duration="30.00"/>
    </vehicle>

    <vehicle id="71_trolleybus_6:0" type="pt_trolleybus" depart="418.00" departLane="0" arrival="533.00">
        <route edges="762514801#3 741733384#0 260824573#0 260824573#3 189099792#0 10741751#0"/>
        <stop busStop="1956880737" duration="30.00"/>
    </vehicle>

    <vehicle id="60_trolleybus_12:1" type="pt_trolleybus" depart="367.00" departLane="0" arrival="552.00">
        <route edges="741087755 589664316#0 670872012#0 280005152#0 725187180 298298663#0 23182962 189063912#0 207971475#0 207971475#1 284241336#0 284241336#5 52493742 52493741#0 704293239#0 299506410#0 207979572#0 23182767#0 23182987#0"/>
        <stop busStop="3459098893" duration="30.00"/>
    </vehicle>

    <vehicle id="52_bus_227:1" type="pt_bus" depart="326.00" departLane="0" arrival="558.00">
        <route edges="715534866#0 715534866#1 717328985#0 -286067599#11 -286067599#7 -286067599#6 -286067599#4 -286067599#1 711888497#0 299654833#0 52493739#0 23183970#0 52493742 52493741#0 704293239#0 299506410#0 207979572#0 23182767#0 23182987#0"/>
        <stop busStop="-2786682035" duration="30.00"/>
    </vehicle>

    <vehicle id="59_bus_856:1" type="pt_bus" depart="362.00" departLane="0" arrival="558.00">
        <route edges="741087755 589664316#0 670872012#0 280005152#0 725187180 298298663#0 23182962 189063912#0 207971475#0 207971475#1 284241336#0 284241336#5 52493742 52493741#0 704293239#0 299506410#0 207979572#0 23182767#0 23182990#0"/>
        <stop busStop="2512113609" duration="30.00"/>
    </vehicle>

    <vehicle id="85_bus_040:1" type="pt_bus" depart="525.00" departLane="0" arrival="564.00">
        <route edges="23182987#0"/>
        <stop busStop="2786692509" duration="30.00"/>
    </vehicle>

    <vehicle id="9_bus_224:0" type="pt_bus" depart="52.00" departLane="1" arrival="567.00">
        <route edges="260124785 702087350 311408820#0 311408820#5 311408820#8 23182806#0 52493441#0 52493436#0 52493436#5 52493436#8 52493436#12 260124786#0 260124786#2 168914459#0 751068056 168914458#0 299510529#0 299644700#0 299644700#2 299644700#5 299644700#7 299644700#8 298828555#0 -917873078 -259803253 -972690969 -909651170#1 -909651169 -820421378#1 -909651173#2 -909651172 -972690317 284174992#0 169130585 734708564#0 659991805#0 167907745#0"/>
        <stop busStop="1613240806" duration="30.00"/>
        <stop busStop="1799562372" duration="30.00"/>
    </vehicle>

    <vehicle id="53_bus_250:0" type="pt_bus" depart="331.00" departLane="0" arrival="567.00">
        <route edges="295056177#0 881725975#0 284174992#0 169130585 734708564#0 659991805#0 167907745#0"/>
        <stop busStop="6644789228" duration="30.00"/>
    </vehicle>

    <vehicle id="62_bus_Α3:0" type="pt_bus" depart="377.00" departLane="0" arrival="571.00">
        <route edges="221139568 221139568-AddedOffRampEdge 298744689 5656636#0 624053070 87082469 687831199#0 167920360#0 167920360#1 23182965#0 207979569#0 207979569#3 168914464#0 23183273#0 380901379#0 751068056"/>
        <stop busStop="1792445580" duration="30.00"/>
    </vehicle>

    <vehicle id="64_bus_Γ12:0" type="pt_bus" depart="383.00" departLane="1" arrival="575.00">
        <route edges="10741754#0 222899032#0 222899032#1 284503674#0 972965170#0 32245113#0 741733384#0 260824573#0 260824573#3 189099792#0 10741751#0"/>
        <stop busStop="1997456424" duration="30.00"/>
    </vehicle>

    <vehicle id="25_bus_230:1" type="pt_bus" depart="136.00" departLane="0" arrival="583.00">
        <route edges="634252645#0 634252645#1 634252645#2 634252645#5 634252645#7 634252645#10 634252645#11 634252645#12 634252645#13 634252645#14 299514252#0 299514252#1 299514252#2 299514252#4 299514252#5 299514252#6 299514252#9 299514252#10 299514252#13 61093639#0 571469976#0 762793106#0 762793106#2 762793106#3 23182798#0 299510180#0 299510529#0 299644700#0 299644700#2 299644700#5 299644700#7 299644700#8 298828555#0 170993800#0 5728492#0 87082472 560974709"/>
        <stop busStop="1800990636" duration="30.00"/>
        <stop busStop="1800990687" duration="30.00"/>
        <stop busStop="1800990635" duration="30.00"/>
        <stop busStop="1800990612" duration="30.00"/>
    </vehicle>

    <vehicle id="39_bus_025:0" type="pt_bus" depart="204.00" departLane="0" arrival="586.00">
        <route edges="634252645#0 634252645#1 634252645#2 634252645#5 634252645#7 634252645#10 634252645#11 634252645#12 634252645#13 634252645#14 299514252#0 299514252#1 299514252#2 299514252#4 299514252#5 299514252#6 299514252#9 299514252#10 299514252#13 299514252#16 259803254#0 168914460 704293238 23183369#0 1098886968#0 10976954#0 742016387#0 286067599#0 286067599#2 286067599#6 286067599#7 286067599#8 -717328985#3 -715534866#1 -715534866#0"/>
        <stop busStop="1800990636" duration="30.00"/>
    </vehicle>

    <vehicle id="13_bus_622:0" type="pt_bus" depart="60.00" departLane="1" arrival="591.00">
        <route edges="260124785 702087350 311408820#0 311408820#5 311408820#8 23182806#0 52493441#0 52493436#0 52493436#5 52493436#8 52493436#12 260124786#0 260124786#2 168914459#0 751068056 168914458#0 299510529#0 299644700#0 299644700#2 299644700#5 299644700#7 299644700#8 298828555#0 -917873078 -259803253 -972690969 -909651170#1 -909651169 -820421378#1 -909651173#2 -909651172 -972690317 284174992#0 169130585 734708564#0 659991805#0 169130582#0 922515461#0"/>
        <stop busStop="1613240806" duration="30.00"/>
    </vehicle>

    <vehicle id="84_bus_040:0" type="pt_bus" depart="517.00" departLane="4" arrival="601.00">
        <route edges="221139568 221139568-AddedOffRampEdge 81916368#0 87082463 87082462#0-AddedOnRampEdge 87082462#0 789796814 23182767#0 23182987#0"/>
        <stop busStop="2786692509" duration="30.00"/>
    </vehicle>

    <vehicle id="40_bus_026:1" type="pt_bus" depart="218.00" departLane="0" arrival="611.00">
        <route edges="634252645#0 634252645#1 634252645#2 634252645#5 634252645#7 634252645#10 634252645#11 634252645#12 634252645#13 634252645#14 299514252#0 299514252#1 299514252#2 299514252#4 299514252#5 299514252#6 299514252#9 299514252#10 299514252#13 299514252#16 259803254#0 168914460 704293238 23183369#0 1098886968#0 10976954#0 742016387#0 286067599#0 286067599#2 286067599#6 286067599#7 286067599#8 -717328985#3 -715534866#1 -715534866#0"/>
        <stop busStop="1800990636" duration="30.00"/>
    </vehicle>

    <vehicle id="81_subway_Μ1:0" type="pt_subway" depart="497.00" departLane="0" arrival="614.00">
        <route edges="86322959 86322965#1 86322965#2 86322965#3 86322965#4"/>
        <stop busStop="9666216520" duration="30.00"/>
        <stop busStop="5396738090" duration="30.00"/>
    </vehicle>

    <vehicle id="83_bus_049:1" type="pt_bus" depart="508.00" departLane="0" arrival="615.00">
        <route edges="760848368#0 286067598#0 286067598#1 286067598#2 286067598#4"/>
        <stop busStop="3940829188" duration="30.00"/>
    </vehicle>

    <vehicle id="35_trolleybus_12:0" type="pt_trolleybus" depart="173.00" departLane="0" arrival="619.00">
        <route edges="221139568 221139568-AddedOffRampEdge 298744689 5656636#0 624053070 87082469 687831199#0 167920360#0 167920360#1 23182965#0 207979566#0 23182796#0 23182796#3 734707701#9 299510181#0 299510181#3 299510181#5 299510181#8 259803255#0 259803255#2 601290889#0 601290889#4 601290889#6 601290889#8 601303883#0 299658207 49288906 10971766#0 10971766#2 10741747#0 222897513#0 222941080#6 85392263#0 85392263#1 10741758#1 10741722#0 10741722#2 10741722#3 286070634#0"/>
        <stop busStop="1792445580" duration="30.00"/>
    </vehicle>

    <vehicle id="66_bus_Χ95_ΣΥΝΤΑΓΜΑ_-_ΑΕΡΟΛ._ΑΘΗΝΩΝ_(EXPRESS):0" type="pt_bus" depart="388.00" departLane="0" arrival="625.00">
        <route edges="23182990#0 221139568 221139568-AddedOffRampEdge 298744689 23182816 -170993800#2 -917873078 -259803253 -972690969 -909651170#1 -909651169 -820421378#1 -909651173#2 -909651172 -972690317 284174992#0 169130585 734708564#0 169130603#0 169130590"/>
        <stop busStop="12668841452" duration="30.00"/>
    </vehicle>

    <vehicle id="65_bus_Χ14_ΚΗΦΙΣΙΑ_-_ΣΥΝΤΑΓΜΑ:0" type="pt_bus" depart="383.00" departLane="0" arrival="647.00">
        <route edges="167920332#0 167920332#1 221211079 52493502#0 170644475#0 52493497#0 909651168 789786774 909651173#0 820421378#0 909651169 909651170#0 295056184#0 259803253 830255108#0 170993800#0 5728492#0 87082472 560974709 87082462#0-AddedOnRampEdge 87082462#0 789796814 23182767#0 23182987#0"/>
        <stop busStop="1792445582" duration="30.00"/>
    </vehicle>

    <vehicle id="74_trolleybus_15:1" type="pt_trolleybus" depart="437.00" departLane="0" arrival="666.00">
        <route edges="260124785 702087350 311408820#0 311408820#5 311408820#8 168737311#0 168737311#3 32295709 207971475#0 207971475#1 284241336#0 284241336#5 52493742 52493741#0 704293239#0 299506410#0 207979572#0 23182767#0 23182987#0"/>
        <stop busStop="2515049716" duration="30.00"/>
    </vehicle>

    <vehicle id="22_bus_608:0" type="pt_bus" depart="131.00" departLane="1" arrival="682.00">
        <route edges="260124785 702087350 311408820#0 311408820#5 311408820#8 23182806#0 52493441#0 52493436#0 52493436#5 52493436#8 52493436#12 260124786#0 260124786#2 168914459#0 751068056 168914458#0 299510529#0 299644700#0 299644700#2 299644700#5 299644700#7 299644700#8 298828555#0 -917873078 -259803253 -972690969 -909651170#1 -909651169 -820421378#1 -909651173#2 -909651172 -972690317 284174992#0 169130585 734708564#0 659991805#0 169130582#0 922515461#0"/>
        <stop busStop="1799562372" duration="30.00"/>
        <stop busStop="1792445558" duration="30.00"/>
        <stop busStop="1792445581" duration="30.00"/>
    </vehicle>

    <vehicle id="91_subway_Μ1:1" type="pt_subway" depart="574.00" departLane="0" arrival="690.00">
        <route edges="1051862655 557570459#1 557570459#2 557570459#3 557570459#4"/>
        <stop busStop="5396738094" duration="30.00"/>
        <stop busStop="97819323" duration="30.00"/>
    </vehicle>

    <vehicle id="56_bus_813:1" type="pt_bus" depart="346.00" departLane="0" arrival="695.00">
        <route edges="634252645#0 634252645#1 634252645#2 634252645#5 634252645#7 634252645#10 634252645#11 634252645#12 634252645#13 634252645#14 299514252#0 299514252#1 299514252#2 299514252#4 299514252#5 299514252#6 299514252#9 299514252#10 299514252#13 299514252#16 259803254#0 168914460 704293238 207891571#0 168904430 284241337#0 1101347640#0 189063911#0 24218743 168725549#0 23184691#0 250756985#0 -670872012#2 -589664316#3 -741087755"/>
        <stop busStop="1618000514" duration="30.00"/>
    </vehicle>

    <vehicle id="72_trolleybus_6:1" type="pt_trolleybus" depart="422.00" departLane="1" arrival="701.00">